 Gaussian 09, Revision B.01,
 Gaussian 09:  EM64L-G09RevB.01 12-Aug-2010

 ----------------------------------------------------------------------
 #p opt=maxcycles=100 b3lyp/6-31+g(d,p) nosymm geom=connectivity scf=(f
 ermi,xqc)
 ----------------------------------------------------------------------

 -------------------
 Title Card Required
 -------------------
 Symbolic Z-matrix:
 Charge =  1 Multiplicity = 1

 SCF Done:  E(RB3LYP) =  -214.189179520     A.U. after   11 cycles
 SCF Done:  E(RB3LYP) =  -214.194132324     A.U. after   10 cycles
 SCF Done:  E(RB3LYP) =  -214.194509634     A.U. after    8 cycles
 SCF Done:  E(RB3LYP) =  -214.194735911     A.U. after    9 cycles
 SCF Done:  E(RB3LYP) =  -214.167110332     A.U. after   12 cycles
 SCF Done:  E(RB3LYP) =  -214.195061817     A.U. after   12 cycles
 SCF Done:  E(RB3LYP) =  -214.195342631     A.U. after   10 cycles
 SCF Done:  E(RB3LYP) =  -214.195348387     A.U. after   10 cycles
 SCF Done:  E(RB3LYP) =  -214.195633217     A.U. after    9 cycles
 SCF Done:  E(RB3LYP) =  -214.195798124     A.U. after    8 cycles
 SCF Done:  E(RB3LYP) =  -214.196731639     A.U. after   10 cycles
 SCF Done:  E(RB3LYP) =  -214.197281124     A.U. after   10 cycles
 SCF Done:  E(RB3LYP) =  -214.197645779     A.U. after    9 cycles
 SCF Done:  E(RB3LYP) =  -214.198070554     A.U. after    9 cycles
 SCF Done:  E(RB3LYP) =  -214.198422586     A.U. after   10 cycles
 SCF Done:  E(RB3LYP) =  -214.198564518     A.U. after    8 cycles
 SCF Done:  E(RB3LYP) =  -214.198600662     A.U. after    8 cycles
 SCF Done:  E(RB3LYP) =  -214.198602000     A.U. after    8 cycles
 SCF Done:  E(RB3LYP) =  -214.198602270     A.U. after    7 cycles
 Optimization completed.
    -- Stationary point found.

                          Input orientation:
 ---------------------------------------------------------------------
 Center     Atomic      Atomic             Coordinates (Angstroms)
 Number     Number       Type             X           Y           Z
 ---------------------------------------------------------------------
      1          6           0        1.092101    0.514194   -0.195490
      2          1           0        1.432907   -0.331261   -0.801984
      3          1           0        1.383551    1.448021   -0.687242
      4          1           0       -0.000494    0.482699   -0.176329
      5          6           0        1.609521    0.436601    1.233270
      6          1           0        1.266755    1.275931    1.842735
      7          1           0        1.319854   -0.493408    1.727804
      8          7           0        3.128627    0.479817    1.271016
      9          1           0        3.447724    1.338572    0.808707
     10          1           0        3.496993   -0.288904    0.699608
     11          6           0        3.753078    0.405890    2.655288
     12          1           0        3.340255    1.245084    3.219782
     13          1           0        3.393157   -0.524028    3.101361
     14          6           0        5.271704    0.456771    2.576338
     15          1           0        5.627792    1.390527    2.128955
     16          1           0        5.679392    0.403662    3.589276
     17          1           0        5.681644   -0.388566    2.014078
 ---------------------------------------------------------------------

 Alpha  occ. eigenvalues --  -14.64563 -10.42733 -10.42732 -10.35729 -10.35727
 Alpha  occ. eigenvalues --   -1.19250  -0.97118  -0.92503  -0.83944  -0.81152
 Alpha  occ. eigenvalues --   -0.78271  -0.68659  -0.67213  -0.63868  -0.61723
 Alpha  occ. eigenvalues --   -0.58878  -0.55876  -0.55758  -0.54514  -0.54280
 Alpha  occ. eigenvalues --   -0.53597
 Alpha virt. eigenvalues --   -0.17658  -0.13417  -0.12791  -0.12278  -0.09934
 Alpha virt. eigenvalues --   -0.08655  -0.07994  -0.07827  -0.07159  -0.07018
 Alpha virt. eigenvalues --   -0.05784  -0.04703  -0.04563  -0.03622  -0.01711

 Mulliken atomic charges:
              1
     1  C   -0.529833
     2  H    0.177617
     3  H    0.177407
     4  H    0.208555
     5  C   -0.071947
     6  H    0.200156
     7  H    0.200084
     8  N   -0.507542
     9  H    0.391619
    10  H    0.391558
    11  C   -0.071803
    12  H    0.200142
    13  H    0.200116
    14  C   -0.529634
    15  H    0.177346
    16  H    0.208593
    17  H    0.177566
 Sum of Mulliken atomic charges =   1.00000

 Dipole moment (field-independent basis, Debye):
    X=             14.6040    Y=              2.2486    Z=              6.7431  Tot=             16.2420
 Quadrupole moment (field-independent basis, Debye-Ang):
   XX=             22.4274   YY=            -27.9601   ZZ=            -16.2037
   XY=              6.7578   XZ=             24.8753   YZ=              3.0658

 Normal termination of Gaussian 09 at Thu Jan 26 12:41:24 2017.
